First line of this test
4 atoms
2 bonds
0 angles
4 atom types
1 bond types
1 angle types
-100.0 100.0 xlo xhi
-100.0 100.0 ylo yhi
-4.25 0.25 zlo zhi

Masses

1 1
2 1
3 1
4 1


Atoms

1 1 2 -0.5 0.0 0.0
2 1 3 0.5 0.0 0.0
3 0 4 0.0 -0.5 -2.0
4 0 4 0.0 0.5 -2.0


Bonds

1 1 1 2
2 1 3 4
