First line of this test
10 atoms
5 bonds
0 angles
4 atom types
1 bond types
1 angle types
-100.0 100.0 xlo xhi
-100.0 100.0 ylo yhi
-4.25 0.25 zlo zhi

Masses

1 1
2 1
3 1
4 1


Atoms

1 1 2 -0.5 0.0 0.0
2 1 3 0.5 0.0 0.0
3 0 4 0.0 15.5 -2.0
4 0 4 0.0 14.5 -2.0
5 0 4 0.0 -15.5 -2.0
6 0 4 0.0 -14.5 -2.0
7 0 4 15.5 0.0 -2.0
8 0 4 14.5 0.0 -2.0
9 0 4 -15.5 0.0 -2.0
10 0 4 -14.5 0.0 -2.0


Bonds

1 1 1 2
2 1 3 4
3 1 5 6
4 1 7 8
5 1 9 10
