First line of this test
2 atoms
1 bonds
0 angles
3 atom types
1 bond types
1 angle types
-50.0 50.0 xlo xhi
-50.0 50.0 ylo yhi
-0.25 0.25 zlo zhi

Masses

1 1
2 1
3 1


Atoms

1 1 2 -0.5 0.0 0.0
2 1 3 0.5 0.0 0.0


Bonds

1 1 1 2
