LAMMPS (3 Nov 2022)
log            /Users/christian/PhD/software/MINE_CLEAN/treadmilling_filaments/MD/Create_sim_files/MC_One_Filament/Tau_1000.0_mu_6.0_PBB_0.8_Lx_50.0_Ly_50.0/Results/MC_OneFilament_Log_Tau_1000.0_mu_6.0_PBB_0.8_Lx_50.0_Ly_50.0_Nsim_1.dat
